<?xml version="1.0"?>
<VTKFile type="UnstructuredGrid" version="0.1" byte_order="BigEndian">
  <UnstructuredGrid>
    <Piece NumberOfPoints="891" NumberOfCells="624">
      <Points>
        <DataArray type="Float32" NumberOfComponents="3" format="ascii">
          74.5233 -370.664 -999.72
          -97.3503 -370.659 -986.058
          88.1128 -334.945 -1032.82
          54.4201 -321.838 -957.367
          53.7347 -379.462 -1042.09
          47.2372 -369.88 -1057.86
          -102.275 -365.793 -1014.16
          72.0656 -328.032 -1043.58
          -100.37 -339.474 -967.148
          52.1702 -348.582 -1046.33
          42.5181 -355.76 -1016.07
          -20.401 -355.507 -927.32
          74.468 -374.234 -1031.23
          -29.9709 -330.279 -948.323
          -6.67753 -411.738 -942.771
          45.3583 -349.866 -990.057
          50.3555 -384.931 -1013.92
          70.1801 -313.869 -1033.52
          35.3241 -367.888 -1037.32
          31.939 -402.76 -958.782
          20.8237 -352.872 -929.283
          -103.208 -306.457 -990.897
          20.543 -396.366 -991.208
          -46.3101 -403.904 -988.793
          -55.1696 -372.993 -931.476
          -70.9142 -290.52 -994.95
          -59.2275 -346.879 -996.142
          -50.0255 -403.048 -950.263
          77.2505 -318.248 -1013.82
          -65.2812 -339.768 -942.891
          -97.0972 -317.494 -1015.36
          -25.1965 -414.798 -971.721
          -45.2334 -314.233 -1001.74
          71.2446 -364.755 -1054.77
          3.68605 -412.05 -971.913
          -83.405 -374.286 -954.844
          -70.1972 -294.468 -1027.37
          88.2636 -356.45 -1040.57
          69.9022 -335.552 -985.73
          -95.3608 -286.104 -1015.14
          -112.844 -340.385 -1003.35
          9.16891 -386.029 -926.862
          78.7798 -345.114 -1050.7
          -39.1435 -379.858 -991.698
          -79.8779 -311.676 -963.904
          54.2343 -347.498 -945.913
          -56.1837 -364.242 -963.299
          55.0095 -322.778 -1020.86
          -26.193 -390.147 -926.214
          -26.6599 -350.686 -983.661
          31.3921 -325.991 -942.158
          31.1966 -373.328 -987.971
          -14.8677 -397.224 -989.009
          60.8944 -308.191 -1006.45
          -47.7223 -312.797 -970.232
          -2.42664 -377.59 -979.662
          30.4993 -325.441 -967.294
          -72.5876 -395.44 -977.078
          -88.5505 -347.661 -1015.85
          41.534 -379.152 -938.988
          13.5001 -350.928 -973.612
          63.4093 -373.313 -965.957
          52.3253 -391.998 -986.418
          -11.6505 -327.951 -974.915
          -70.6436 -377.266 -1001.13
          -20.1285 -380.231 -953.593
          3.27725 -326.682 -948.008
          84.6344 -349.289 -1014.63
          -71.9956 -318.778 -1011.11
          50.5949 -374.653 -980.977
          -50.2176 -335.962 -954.32
          -48.5331 -326.126 -951.51
          83.5049 -366.008 -1037.42
          86.341 -340.313 -1043.01
          37.2811 -364.025 -958.055
          -27.6501 -321.69 -989.752
          -49.635 -408.104 -971.303
          -32.4811 -316.549 -985.056
          -80.5483 -330.97 -971.618
          -31.6111 -325.274 -984.353
          -72.2706 -347.263 -964.148
          91.5346 -346.904 -1036.19
          -53.1934 -351.638 -943.651
          -58.0554 -314.236 -1008.82
          44.666 -385.397 -994.856
          -23.9291 -370.98 -983.391
          -63.2085 -346.759 -964.623
          68.8826 -379.616 -1016.13
          -51.6471 -344.233 -948.995
          -26.7801 -330.415 -989.05
          -45.7425 -336.118 -981.781
          52.3766 -384.205 -1029.76
          -1.09424 -342.036 -945.835
          79.3055 -324.263 -1039.59
          -25.6859 -394.324 -977.987
          17.0428 -331.841 -951.438
          -29.349 -319.275 -974.594
          31.5113 -352.169 -978.881
          -14.1216 -328.197 -948.03
          84.7789 -361.782 -1029.3
          2.44901 -371.948 -948.179
          -95.7746 -304.053 -1008.18
          -103.537 -300.291 -1008.21
          -42.4025 -348.85 -952.744
          51.5909 -362.943 -970.063
          47.3829 -341.678 -1009.45
          -102.636 -356.424 -975.257
          43.2506 -367.653 -1048.36
          -14.1419 -354.106 -947.77
          88.1661 -346.945 -1035.09
          20.8379 -321.135 -951.61
          -75.881 -349.361 -957.205
          90.8729 -347.923 -1028.68
          56.8598 -341.409 -1034.57
          1.99981 -396.631 -991.135
          56.4409 -374.39 -981.496
          -80.5319 -333.07 -1009.37
          -34.0046 -356.987 -960.824
          43.3336 -373.424 -1027.62
          25.0781 -388.894 -956.126
          -78.5474 -333.255 -963.162
          61.1148 -353.151 -1004.32
          -12.2368 -377.989 -922.511
          -39.2892 -401.764 -971.457
          -74.9828 -298.227 -976.629
          54.5631 -340.028 -1003.29
          29.6012 -392.648 -938.887
          83.5956 -357.339 -1035.55
          88.8279 -345.926 -1042.59
          -103.5 -353.934 -1002.73
          48.3759 -362.953 -1035.46
          3.14156 -402.79 -987.082
          47.2226 -337.54 -1019.35
          38.0035 -369.039 -1050.4
          -55.2176 -337.912 -958.612
          61.9888 -325.805 -1002.32
          -69.2295 -295.881 -1013.84
          -51.8174 -389.837 -996.94
          40.6048 -376.785 -1026.73
          -30.4398 -382.907 -972.601
          -13.4437 -399.127 -947.285
          -42.2504 -383.819 -963.738
          22.3691 -371.847 -966.196
          -57.6271 -339.911 -965.778
          14.2061 -400.168 -975.5
          69.8086 -356.719 -1044.18
          -80.2918 -388.495 -965.587
          62.8806 -344.483 -1030.88
          -5.46686 -398.042 -959.384
          -76.4939 -379.35 -975.48
          -58.3488 -324.367 -1002.09
          72.6061 -325.959 -1023.9
          -37.4318 -412.953 -961.252
          -15.0066 -386.948 -974.58
          1.61947 -353.99 -926.086
          63.1131 -348.644 -1000.72
          80.8251 -361.183 -1047.37
          -58.0049 -299.111 -981.872
          -64.8818 -319.21 -955.86
          45.616 -359.78 -971.299
          12.008 -401.67 -968.27
          -3.41234 -370.05 -963.927
          43.8264 -368.642 -1001.19
          -15.0858 -365.499 -979.016
          69.7379 -316.089 -999.486
          17.8779 -324.03 -943.995
          19.6116 -407.156 -975.7
          68.7748 -342.322 -1035.77
          48.5443 -367.378 -1005.08
          65.2986 -315.951 -1005.33
          39.1293 -350.89 -968.197
          -64.9846 -320.152 -982.182
          67.6562 -308.002 -1018.27
          22.3851 -368.367 -938.211
          24.9125 -374.34 -927.799
          -55.5571 -388.682 -969.955
          -60.4163 -358.084 -943.796
          -65.0654 -301.02 -974.072
          -66.9206 -304.6 -982.571
          53.0244 -329.021 -975.795
          -72.5224 -361.737 -969.965
          48.6509 -328.341 -945.64
          -71.1458 -374.031 -940.958
          15.6031 -376.552 -980.023
          -15.0095 -394.614 -968.995
          -3.00247 -382.519 -950.25
          -55.6995 -388.684 -937.267
          -7.6088 -403.688 -956.734
          35.7366 -400.283 -980.405
          -20.7479 -396.136 -974.348
          34.9949 -393.914 -981.276
          44.1775 -340.273 -966.131
          -33.742 -370.607 -935.502
          11.5919 -332.962 -971.853
          -34.8958 -373.157 -924.451
          21.583 -380.775 -956.493
          -26.1831 -399.059 -939.954
          -34.2525 -358.129 -953.572
          68.8806 -354.903 -991.074
          -16.4861 -353.231 -962.498
          1.85364 -396.893 -984.037
          -66.4257 -371.522 -947.328
          -79.1786 -354.798 -954.671
          -96.9282 -337.443 -1000.31
          34.6601 -339.508 -960.344
          -22.1261 -399.813 -965.055
          -26.0806 -354.634 -960.922
          0.711889 -390.734 -988.09
          8.45072 -388.03 -986.273
          -13.8142 -353.747 -955.525
          57.9686 -337.057 -1007.03
          -57.0408 -383.915 -977.401
          61.5982 -385.345 -1000.45
          -85.0459 -300.656 -1020.99
          -47.0572 -400.59 -977.676
          31.9662 -360.322 -980.954
          -14.2811 -378.703 -930.02
          -108.468 -329.411 -1010.21
          7.66572 -398.05 -980.494
          11.667 -405.863 -982.885
          65.3275 -341.83 -1026.32
          -83.4634 -303.755 -1026
          -54.6005 -385.006 -956.487
          3.73322 -365.012 -923.394
          -94.5258 -357.369 -959.213
          -19.0921 -385.453 -986.806
          -82.8634 -333.983 -1002.13
          -3.79959 -398.008 -980.46
          72.4437 -326.524 -1016.3
          -29.8859 -371.629 -975.05
          58.2801 -377.937 -997.717
          -60.3504 -312.638 -988.691
          30.9502 -342.195 -975.599
          60.2956 -383.604 -1030.14
          6.81494 -384.485 -949.117
          -85.4021 -365.911 -1003.75
          37.2883 -360.867 -950.073
          23.8147 -336.063 -951.436
          11.9825 -341.093 -945.74
          51.5648 -366.059 -1044.43
          59.9032 -343.26 -1002.7
          -91.9634 -373.832 -1003.29
          -91.1326 -367.773 -1007.86
          -83.923 -286.227 -1025.64
          -80.5527 -332.667 -1013.01
          43.8309 -379.971 -1031.52
          -88.2618 -365.968 -1015.51
          -89.0926 -372.028 -1010.94
          77.197 -359.196 -1042.84
          -7.66869 -338.536 -936.121
          26.0506 -337.036 -933.834
          22.8069 -340.926 -944.32
          -4.53945 -371.249 -922.751
          62.4605 -335.857 -1046.01
          75.9821 -323.987 -1000.44
          62.0956 -373.706 -984.993
          66.6856 -379.703 -983.482
          -11.7301 -408.065 -959.13
          50.8597 -390.35 -961.396
          -85.1204 -377.331 -995.102
          58.9852 -309.076 -1021.3
          -28.3692 -410.698 -943.376
          -87.9454 -294.653 -1002.4
          -72.6144 -357.977 -1005.58
          -79.3971 -361.779 -1000.41
          60.2194 -374.824 -991.59
          65.1776 -382.705 -992.47
          -79.4374 -362.974 -1011.56
          0.482721 -402.603 -960.885
[...]
      <CellData Scalars="scalars">
        <DataArray type="Int32" Name="subdomain index" format="ascii">
          1
          1
          1
          1
          1
          1
          1
          1
          1
          1
          1
          1
          1
          1
          1
          1
          1
          1
          1
          1
          1
          1
          1
          1
          1
          1
          1
          1
          1
          1
          1
          1
          1
          1
          1
          1
          1
          1
          1
          1
          1
          1
          1
          1
          1
          1
          1
          1
          1
          1
          1
          1
          1
          1
          1
          1
          1
          1
          1
          1
          1
          1
          1
          1
          1
          1
          1
          1
          1
          1
          1
          1
          1
          1
          1
          1
          1
          1
          1
          1
          1
          1
          1
          1
          1
          1
          1
          1
          1
          1
          1
          1
          1
          1
          1
          1
          1
          1
          1
          1
          1
          1
          1
          1
          1
          1
          1
          1
          1
          1
          1
          1
          1
          1
          1
          1
          1
          1
          1
          1
          1
          1
          1
          1
          1
          1
          1
          1
          1
          1
          1
          1
          1
          1
          1
          1
          1
          1
          1
          1
          1
          1
          1
          1
          1
          1
          1
          1
          1
          1
          1
          1
          1
          1
          1
          1
          1
          1
          1
          1
          1
          1
          1
          1
          1
          1
          1
          1
          1
          1
          1
          1
          1
          1
          1
          1
          1
          1
          1
          1
          1
          1
          1
          1
          1
          1
          1
          1
          1
          1
          1
          1
          1
          1
          1
          1
          1
          1
          1
          1
          1
          1
          1
          1
          1
          1
          1
          1
          1
          1
          1
          1
          1
          1
          1
          1
          1
          1
          1
          1
          1
          1
          1
          1
          1
          1
          1
          1
          1
          1
          1
          1
          1
          1
          1
          1
          1
          1
          1
          1
          1
          1
          1
          1
          1
          1
          1
          1
          1
          1
          1
          1
          1
          1
          1
          1
          1
          1
          1
          1
          1
          1
          1
          1
          1
          1
          1
          1
          1
          1
          1
          1
          1
          1
          1
          1
          1
          1
          1
          1
          1
          1
          1
          1
          1
          1
          1
          1
          1
          1
          1
          1
          1
          1
          1
          1
          1
          1
          1
          1
          1
          1
          1
          1
          1
          1
          1
          1
          1
          1
          1
          1
          1
          1
          1
          1
          1
          1
          1
          1
          1
          1
          1
          1
          1
          1
          1
          1
          1
          1
          1
          1
          1
          1
          1
          1
          1
          1
          1
          1
          1
          1
          1
          1
          1
          1
          1
          1
          1
          1
          1
          1
          1
          1
          1
          1
          1
          1
          1
          1
          1
          1
          1
          1
          1
          1
          1
          1
          1
          1
          1
          1
          1
          1
          1
          1
          1
          1
          1
          1
          1
          1
          1
          1
          1
          1
          1
          1
          1
          1
          1
          1
          1
          1
          1
          1
          1
          1
          1
          1
          1
          1
          1
          1
          1
          1
          1
          1
          1
          1
          1
          1
          1
          1
          1
          1
          1
          1
          1
          1
          1
          1
          1
          1
          1
          1
          1
          1
          1
          1
          1
          1
          1
          1
          1
          1
          1
          1
          1
          1
          1
          1
          1
          1
          1
          1
          1
          1
          1
          1
          1
          1
          1
          1
          1
          1
          1
          1
          1
          1
          1
          1
          1
          1
          1
          1
          1
          1
          1
          1
          1
          1
          1
          1
          1
          1
          1
          1
          1
          1
          1
          1
          1
          1
          1
          1
          1
          1
          1
          1
          1
          1
          1
          1
          1
          1
          1
          1
          1
          1
          1
          1
          1
          1
          1
          1
          1
          1
          1
          1
          1
          1
          1
          1
          1
          1
          1
          1
          1
          1
          1
          1
          1
          1
          1
          1
          1
          1
          1
          1
          1
          1
          1
          1
          1
          1
          1
          1
          1
          1
          1
          1
          1
          1
          1
          1
          1
          1
          1
          1
          1
          1
          1
          1
          1
          1
          1
          1
          1
          1
          1
          1
          1
          1
          1
          1
          1
          1
          1
          1
          1
          1
          1
          1
          1
          1
          1
          1
          1
          1
          1
          1
          1
          1
          1
          1
          1
          1
          1
          1
          1
          1
          1
          1
          1
          1
          1
          1
          1
          1
          1
          1
          1
          1
          1
          1
          1
          1
          1
          1
          1
          1
          1
          1
          1
          1
          1
          1
          1
          1
          1
          1
          1
          1
        </DataArray>
      </CellData>
    </Piece>
  </UnstructuredGrid>
</VTKFile>
