# vtk DataFile Version 3.0
vtk output
ASCII
DATASET UNSTRUCTURED_GRID
POINTS 27 float
0 0 0 0 0 1 0 0 2 
0 1 0 0 1 1 0 1 2 
0 2 0 0 2 1 0 2 2 
1 0 0 1 0 1 1 0 2 
1 1 0 1 1 1 1 1 2 
1 2 0 1 2 1 1 2 2 
2 0 0 2 0 1 2 0 2 
2 1 0 2 1 1 2 1 2 
2 2 0 2 2 1 2 2 2 

CELLS 8 72
8 0 9 3 12 1 10 4 13 
8 1 10 4 13 2 11 5 14 
8 3 12 6 15 4 13 7 16 
8 4 13 7 16 5 14 8 17 
8 9 18 12 21 10 19 13 22 
8 10 19 13 22 11 20 14 23 
8 12 21 15 24 13 22 16 25 
8 13 22 16 25 14 23 17 26 

CELL_TYPES 8
11
11
11
11
11
11
11
11

CELL_DATA 8
SCALARS scalars float
LOOKUP_TABLE default
0 0.4 0.4 0 0.4 0 0 0.4 
FIELD FieldData 4
cRamp1 1 8 float
0.1 0.2 0.3 0.4 0.5 0.6 0.7 0.8 
cRamp2 1 8 float
8.1 7.2 6.3 5.4 4.5 3.6 2.7 1.8 
cVects 3 8 float
-1 -1 -1 -1 -1 1 -1 1 -1 
-1 1 1 1 -1 -1 1 -1 1 
1 1 -1 1 1 1 
cv2 3 8 float
0 -2 -1 0 -2 1 0 2 -1 
-1 2 1 2 -1 -2 1 -2 1 
2 2 -1 2 2 1 

POINT_DATA 27
SCALARS scalars float
LOOKUP_TABLE mytable
-0.4 -0.4 -0.4 -0.4 -1 -0.4 -0.4 -0.4 -0.4 
0.4 1 0.4 1 0.4 1 0.4 1 0.4 
0.4 0.4 0.4 0.4 1 0.4 0.4 0.4 0.4 

FIELD FieldData 1
mytest 1 27 float
-13.0
-12.0
-11.0
-10.0
-9.0
-8.0
-7.0
-6.0
-5.0
-4.0
-3.0
-2.0
-1.0
0.0
1.0
2.0
3.0
4.0
5.0
6.0
7.0
8.0
9.0
10.0
11.0
12.0
13.0

LOOKUP_TABLE mytable 64
   6.7397900e-02   7.3764400e-02   9.5253700e-01   1.0000000e+00
   7.9526300e-02   8.7038400e-02   9.3611300e-01   1.0000000e+00
   9.3329400e-02   1.0214500e-01   9.2136300e-01   1.0000000e+00
   1.0893600e-01   1.1922600e-01   9.0841600e-01   1.0000000e+00
   1.2646400e-01   1.3840900e-01   8.9739100e-01   1.0000000e+00
   1.4601700e-01   1.5981000e-01   8.8839200e-01   1.0000000e+00
   1.6768300e-01   1.8352200e-01   8.8150500e-01   1.0000000e+00
   1.9152000e-01   2.0961100e-01   8.7678900e-01   1.0000000e+00
   2.1756300e-01   2.3811400e-01   8.7427900e-01   1.0000000e+00
   2.4581000e-01   2.6903000e-01   8.7397400e-01   1.0000000e+00
   2.7622200e-01   3.0231400e-01   8.7583200e-01   1.0000000e+00
   3.0871700e-01   3.3787800e-01   8.7977400e-01   1.0000000e+00
   3.4316700e-01   3.7558300e-01   8.8567200e-01   1.0000000e+00
   3.7939900e-01   4.1523700e-01   8.9335000e-01   1.0000000e+00
   4.1718600e-01   4.5659300e-01   9.0258400e-01   1.0000000e+00
   4.5625400e-01   4.9935200e-01   9.1310000e-01   1.0000000e+00
   4.9628100e-01   5.4316000e-01   9.2457400e-01   1.0000000e+00
   5.3689900e-01   5.8761500e-01   9.3663900e-01   1.0000000e+00
   5.7769800e-01   6.3226800e-01   9.4888600e-01   1.0000000e+00
   6.1823500e-01   6.7663400e-01   9.6086900e-01   1.0000000e+00
   6.5803600e-01   7.2019500e-01   9.7211800e-01   1.0000000e+00
   6.9661000e-01   7.6241300e-01   9.8213900e-01   1.0000000e+00
   7.3345600e-01   8.0273800e-01   9.9043200e-01   1.0000000e+00
   7.6807100e-01   8.4062400e-01   9.9649400e-01   1.0000000e+00
   7.9996900e-01   8.7553400e-01   9.9983900e-01   1.0000000e+00
   8.2868300e-01   9.0696100e-01   1.0000000e+00   1.0000000e+00
   8.5378300e-01   9.3443200e-01   9.9654700e-01   1.0000000e+00
   8.7488400e-01   9.5752600e-01   9.8909500e-01   1.0000000e+00
   8.9165500e-01   9.7588200e-01   9.7731400e-01   1.0000000e+00
   9.0383100e-01   9.8920800e-01   9.6093700e-01   1.0000000e+00
   9.1121700e-01   9.9729100e-01   9.3977000e-01   1.0000000e+00
   9.1369200e-01   1.0000000e+00   9.1369200e-01   1.0000000e+00
   9.1369200e-01   1.0000000e+00   9.1369200e-01   1.0000000e+00
   9.3977000e-01   9.9729100e-01   9.1121700e-01   1.0000000e+00
   9.6093700e-01   9.8920800e-01   9.0383100e-01   1.0000000e+00
   9.7731400e-01   9.7588200e-01   8.9165500e-01   1.0000000e+00
   9.8909500e-01   9.5752600e-01   8.7488400e-01   1.0000000e+00
   9.9654700e-01   9.3443200e-01   8.5378300e-01   1.0000000e+00
   1.0000000e+00   9.0696100e-01   8.2868300e-01   1.0000000e+00
   9.9983900e-01   8.7553400e-01   7.9996900e-01   1.0000000e+00
   9.9649400e-01   8.4062400e-01   7.6807100e-01   1.0000000e+00
   9.9043200e-01   8.0273800e-01   7.3345600e-01   1.0000000e+00
   9.8213900e-01   7.6241300e-01   6.9661000e-01   1.0000000e+00
   9.7211800e-01   7.2019500e-01   6.5803600e-01   1.0000000e+00
   9.6086900e-01   6.7663400e-01   6.1823500e-01   1.0000000e+00
   9.4888600e-01   6.3226800e-01   5.7769800e-01   1.0000000e+00
   9.3663900e-01   5.8761500e-01   5.3689900e-01   1.0000000e+00
   9.2457400e-01   5.4316000e-01   4.9628100e-01   1.0000000e+00
   9.1310000e-01   4.9935200e-01   4.5625400e-01   1.0000000e+00
   9.0258400e-01   4.5659300e-01   4.1718600e-01   1.0000000e+00
   8.9335000e-01   4.1523700e-01   3.7939900e-01   1.0000000e+00
   8.8567200e-01   3.7558300e-01   3.4316700e-01   1.0000000e+00
   8.7977400e-01   3.3787800e-01   3.0871700e-01   1.0000000e+00
   8.7583200e-01   3.0231400e-01   2.7622200e-01   1.0000000e+00
   8.7397400e-01   2.6903000e-01   2.4581000e-01   1.0000000e+00
   8.7427900e-01   2.3811400e-01   2.1756300e-01   1.0000000e+00
   8.7678900e-01   2.0961100e-01   1.9152000e-01   1.0000000e+00
   8.8150500e-01   1.8352200e-01   1.6768300e-01   1.0000000e+00
   8.8839200e-01   1.5981000e-01   1.4601700e-01   1.0000000e+00
   8.9739100e-01   1.3840900e-01   1.2646400e-01   1.0000000e+00
   9.0841600e-01   1.1922600e-01   1.0893600e-01   1.0000000e+00
   9.2136300e-01   1.0214500e-01   9.3329400e-02   1.0000000e+00
   9.3611300e-01   8.7038400e-02   7.9526300e-02   1.0000000e+00
   9.5253700e-01   7.3764400e-02   6.7397900e-02   1.0000000e+00

FIELD FieldData 5
xRamp 1 27 float
0 0 0 0 0 0 0 0 0 
0.4 0.4 0.4 0.4 0.4 0.4 0.4 0.4 0.4 
0.8 0.8 0.8 0.8 0.8 0.8 0.8 0.8 0.8 

yRamp 1 27 float
0.1 0.1 0.1 0.5 0.5 0.5 0.9 0.9 0.9 
0.1 0.1 0.1 0.5 0.5 0.5 0.9 0.9 0.9 
0.1 0.1 0.1 0.5 0.5 0.5 0.9 0.9 0.9 

zRamp 1 27 float
0.2 0.6 1 0.2 0.6 1 0.2 0.6 1 
0.2 0.6 1 0.2 0.6 1 0.2 0.6 1 
0.2 0.6 1 0.2 0.6 1 0.2 0.6 1 

outVect 3 27 float
-1 -1 -1 
-1 -1 0 
-1 -1 1 
-1 0 -1 
-1 0 0 
-1 0 1 
-1 1 -1 
-1 1 0 
-1 1 1 
0 -1 -1 
0 -1 0 
0 -1 1 
0 0 -1 
0 0 0 
0 0 1 
0 1 -1 
0 1 0 
0 1 1 
1 -1 -1 
1 -1 0 
1 -1 1 
1 0 -1 
1 0 0 
1 0 1 
1 1 -1 
1 1 0 
1 1 1 

vect2 3 27 float
-1 -1 0 
-1 -1 1 
-1 -1 2 
-1 0 -1 
-1 0 0 
-1 0 1 
-1 1 -2 
-1 1 -1
-1 1 0
0 -1 0 
0 -1 1 
0 -1 2 
0 0 -1 
0 0 0 
0 0 1 
0 1 -2 
0 1 -1
0 1 0 
1 -1 0 
1 -1 1 
1 -1 2 
1 0 -1 
1 0 0 
1 0 1 
1 1 -2 
1 1 -1
1 1 0


