<VTKFile type="PolyData" version="1.0" byte_order="LittleEndian" header_type="UInt64">
  <PolyData>
    <Piece NumberOfPoints="706" NumberOfVerts="0" NumberOfLines="0" NumberOfStrips="0" NumberOfPolys="1408">
      <PointData Normals="Normals">
        <DataArray type="Float32" Name="Normals" NumberOfComponents="3" format="ascii" RangeMin="0.99999929513" RangeMax="2.0000006117">
          9.9999999748e-07 0 -1 -0.31992700696 -0.0026030000299 -0.94743901491
          -0.46657600999 -0.0022120000795 -0.88447898626 -0.58159202337 -0.001575000002 -0.81347900629
          -0.6715850234 -0.0013719999697 -0.7409260273 -0.76173901558 -0.0015490000369 -0.64788198471
          -0.84907901287 -0.0012969999807 -0.52826398611 -0.91169202328 -0.00077699997928 -0.41087499261
          -0.95059800148 -0.000503999996 -0.31042599678 -0.96054798365 -0.094605997205 -0.26153001189
          -0.99689602852 -0.0010260000126 -0.078726001084 -0.75940597057 0.009105999954 0.65055298805
          -0.44186401367 -0.043519999832 0.89602601528 0.94002300501 -0.00035799999023 0.34110999107
          0.91229200363 -0.00055499997688 0.40953999758 0.86407399178 -0.0010509999702 0.50336402655
          0.78544402122 -0.0015360000543 0.61892998219 0.69887501001 -0.0012550000101 0.71524202824
          0.62436699867 -0.0011709999526 0.78113001585 0.53038698435 -0.0019300000276 0.84775298834
          0.40063598752 -0.0023300000466 0.91623401642 0.32841798663 0.032345999032 0.94397902489
          9.9999999748e-07 0 -1 -0.31327199936 -0.064967997372 -0.94743901491
          -0.45717900991 -0.093194000423 -0.88447898626 -0.57010900974 -0.11500699818 -0.81347900629
          -0.65841299295 -0.13236500323 -0.7409260273 -0.74680000544 -0.15012699366 -0.64788198471
          -0.83251202106 -0.16692000628 -0.52826398611 -0.89402198792 -0.17862400413 -0.41087400913
          -0.93223398924 -0.18594700098 -0.31042599678 -1.9210959673 -0.18921199441 -0.52305901051
          -0.97754001617 -0.19549100101 -0.078726999462 -0.74659097195 -0.13922099769 0.65055298805
          -0.88372498751 -0.087039001286 1.7920529842 0.92203098536 0.18303799629 0.34110999107
          0.89487099648 0.17743499577 0.40953999758 0.84767597914 0.16754199564 0.50336402655
          0.77065199614 0.15172599256 0.61893099546 0.68569201231 0.13511200249 0.71524202824
          0.61259901524 0.12065900117 0.78113001585 0.52057301998 0.10158000141 0.84775298834
          0.3933930099 0.075874999166 0.91623401642 0.65683597326 0.064692996442 1.8879569769
          9.9999999748e-07 0 -1 -0.294577986 -0.12483599782 -0.94743901491
          -0.43021300435 -0.18059399724 -0.88447898626 -0.5367180109 -0.22402000427 -0.81347900629
          -0.61993902922 -0.25827199221 -0.7409260273 -0.70316302776 -0.29293599725 -0.64788198471
          -0.78395098448 -0.3261269927 -0.52826297283 -0.84199601412 -0.34960699081 -0.41087400913
          -0.87804502249 -0.36424300075 -0.31042599678 -1.8472690582 -0.56036299467 -0.52306002378
          -0.92061901093 -0.38244399428 -0.078726001084 -0.70508497953 -0.28219899535 0.65055298805
          -0.8497620225 -0.25777301192 1.7920540571 0.86860501766 0.35940000415 0.34110999107
          0.84306001663 0.34860700369 0.40953999758 0.79870200157 0.32969599962 0.50336301327
          0.72624397278 0.29915699363 0.61892998219 0.64615702629 0.26628801227 0.71524202824
          0.57728797197 0.23785300553 0.78113001585 0.49075201154 0.20118799806 0.84775298834
          0.37103098631 0.15116399527 0.91623401642 0.63159400225 0.19159199297 1.8879569769
          9.9999999748e-07 -0 -1 -0.26456299424 -0.1799069941 -0.94743901491
          -0.38671499491 -0.26105499268 -0.88447797298 -0.48270100355 -0.32442399859 -0.81347900629
          -0.55764102936 -0.37425398827 -0.7409260273 -0.63250297308 -0.42448699474 -0.64788198471
          -0.70526301861 -0.47280201316 -0.52826297283 -0.75761198997 -0.50715500116 -0.41087400913
          -0.79011297226 -0.52854299545 -0.31042599678 -1.7024519444 -0.90997999907 -0.52306002378
          -0.82831799984 -0.5546990037 -0.078726001084 -0.63648200035 -0.4143320024 0.65055298805
          -0.78314602375 -0.41860100627 1.7920529842 0.78179997206 0.52195101976 0.34110999107
          0.75885099173 0.50638097525 0.40953999758 0.71903502941 0.47918000817 0.50336301327
          0.65392702818 0.43509200215 0.61892998219 0.58179098368 0.38723000884 0.71524202824
          0.519792974 0.34590598941 0.78113001585 0.44207298756 0.29306301475 0.84775298834
          0.33441099524 0.22064399719 0.91623401642 0.58207899332 0.31112998724 1.8879569769
          0 0 -1 -0.2243809998 -0.22806300223 -0.94743901491
          -0.32835501432 -0.33148300648 -0.88447797298 -0.41013398767 -0.41236099601 -0.81347900629
          -0.47391200066 -0.47585299611 -0.7409260273 -0.53753602505 -0.53972601891 -0.64788198471
          -0.59947299957 -0.60130697489 -0.52826297283 -0.64411401749 -0.64521199465 -0.41087400913
          -0.67181801796 -0.67252999544 -0.31042599678 -1.4922120571 -1.224627018 -0.52306002378
          -0.70418602228 -0.70563697815 -0.078726001084 -0.54342001677 -0.53054201603 0.65055298805
          -0.68643397093 -0.56334102154 1.7920540571 0.66495001316 0.66444402933 0.34110999107
          0.64547997713 0.64469599724 0.40953999758 0.61173498631 0.61024999619 0.50336301327
          0.5564789772 0.55430698395 0.61892998219 0.49506700039 0.49329200387 0.71524202824
          0.44232299924 0.44066599011 0.78113001585 0.37640500069 0.37367600203 0.84775298834
          0.28494000435 0.28164499998 0.91623401642 0.51019698381 0.41870799661 1.8879569769
          0 0 -1 -0.17557699978 -0.26745599508 -0.94743901491
          -0.25737598538 -0.38917198777 -0.88447898626 -0.32180601358 -0.48445099592 -0.81347900629
          -0.37197199464 -0.55916500092 -0.7409260273 -0.42191201448 -0.63422298431 -0.64788198471
          -0.47064501047 -0.7067040205 -0.52826398611 -0.50586301088 -0.75847500563 -0.41087400913
          -0.52770501375 -0.7906730175 -0.31042599678 -1.224627018 -1.4922120571 -0.52306002378
          -0.55299198627 -0.82945901155 -0.078726999462 -0.42947500944 -0.62636399269 0.65055298805
          -0.56334102154 -0.68643301725 1.7920540571 0.52254700661 0.78140199184 0.34110999107
          0.5073029995 0.75823497772 0.40953999758 0.48092699051 0.71786797047 0.50336402655
          0.43764701486 0.65222001076 0.61892998219 0.38931798935 0.58039599657 0.71524202824
          0.34785398841 0.51849102974 0.78113001585 0.29627200961 0.43992900848 0.84775298834
          0.22451899946 0.33182200789 0.91623401642 0.41870900989 0.51019799709 1.8879569769
          0 9.9999999748e-07 -1 -0.12002500147 -0.29657000303 -0.94743901491
          -0.17650699615 -0.43190601468 -0.88447898626 -0.22111099958 -0.5379229784 -0.81347900629
          -0.25573700666 -0.62098902464 -0.7409260273 -0.29007399082 -0.70434802771 -0.64788198471
          -0.32372999191 -0.78494399786 -0.52826398611 -0.34817200899 -0.8425899744 -0.41087499261
          -0.36331298947 -0.87843000889 -0.31042599678 -0.90997999907 -1.7024530172 -0.52306002378
          -0.38054698706 -0.9214040041 -0.078726999462 -0.29902499914 -0.69811600447 0.65055197477
          -0.41859900951 -0.78314399719 1.7920550108 0.36006298661 0.86833101511 0.34110999107
          0.34963199496 0.84263598919 0.40953999758 0.33163800836 0.79789799452 0.50336402655
          0.30199599266 0.72506797314 0.61892998219 0.26860800385 0.6451960206 0.71524202824
          0.24001699686 0.57639199495 0.78113001585 0.20475299656 0.48927500844 0.84775298834
          0.15546900034 0.36924800277 0.91623401642 0.31112900376 0.5820800066 1.8879569769
          0 9.9999999748e-07 -1 -0.059861000627 -0.31428799033 -0.94743901491
          -0.08885499835 -0.45804199576 -0.88447898626 -0.11191800237 -0.57072401047 -0.81347900629
          -0.12967400253 -0.65894901752 -0.7409260273 -0.14708900452 -0.74740499258 -0.64788198471
          -0.16437500715 -0.83301800489 -0.52826297283 -0.17710100114 -0.89432501793 -0.41087499261
          -0.18495799601 -0.93243002892 -0.31042599678 -0.56036299467 -1.8472690582 -0.52306002378
          -0.19347800314 -0.97794097662 -0.078723996878 -0.15708400309 -0.74303799868 0.65055298805
          -0.25777199864 -0.84976100922 1.7920550108 0.18374100327 0.92189097404 0.3411090076
          0.17852300406 0.89465397596 0.40953999758 0.16960300505 0.84726601839 0.50336301327
          0.15474000573 0.77005302906 0.61892998219 0.13757500052 0.68520200253 0.71524202824
          0.12295699865 0.61214202642 0.78113001585 0.10536599904 0.51981902122 0.84775298834
          0.080444999039 0.39248299599 0.91623401642 0.19159199297 0.63159400225 1.8879569769
          0 9.9999999748e-07 -1 0.0026030000299 -0.31992700696 -0.94743901491
          0.0022120000795 -0.46657600999 -0.88447898626 0.001575000002 -0.58159202337 -0.81347900629
          0.0013719999697 -0.67158597708 -0.7409260273 0.0015490000369 -0.76173901558 -0.64788198471
          0.0012969999807 -0.84907901287 -0.52826398611 0.00077699997928 -0.91169202328 -0.41087400913
          0.000503999996 -0.95059800148 -0.31042599678 -0.18921099603 -1.9210959673 -0.52305901051
          0.0010260000126 -0.99689602852 -0.078725002706 -0.009105999954 -0.7594050169 0.65055400133
          -0.087039001286 -0.88372498751 1.7920529842 0.00035799999023 0.94002300501 0.34110999107
          0.00055499997688 0.91229200363 0.40953999758 0.0010499999626 0.86407399178 0.50336402655
          0.0015360000543 0.7854449749 0.61892998219 0.0012560000177 0.69887501001 0.71524202824
          0.0011719999602 0.62436699867 0.78113001585 0.0019300000276 0.53038698435 0.84775298834
          0.0023300000466 0.40063598752 0.91623401642 0.064692996442 0.65683597326 1.8879569769
          -0 9.9999999748e-07 -1 0.064967997372 -0.31327199936 -0.94743901491
          0.093193002045 -0.45717900991 -0.88447898626 0.11500699818 -0.57010900974 -0.81347900629
          0.13236500323 -0.65841400623 -0.7409260273 0.15012699366 -0.74680101871 -0.64788198471
          0.166918993 -0.83251202106 -0.52826398611 0.17862400413 -0.89402198792 -0.41087400913
          0.1859460026 -0.93223398924 -0.31042599678 0.18921199441 -1.9210950136 -0.52305901051
          0.19549100101 -0.97754001617 -0.078725002706 0.13922099769 -0.74659001827 0.65055400133
          0.087039999664 -0.88372498751 1.7920529842 -0.18303799629 0.92203098536 0.34110999107
          -0.17743499577 0.89487099648 0.40953999758 -0.16754199564 0.84767597914 0.50336402655
          -0.15172599256 0.77065199614 0.61892998219 -0.13511200249 0.68569201231 0.71524202824
          -0.12065900117 0.61259901524 0.78113001585 -0.10158099979 0.5205720067 0.84775298834
          -0.075874999166 0.3933930099 0.91623401642 -0.064692996442 0.65683597326 1.8879569769
          -0 9.9999999748e-07 -1 0.12483599782 -0.294577986 -0.94743901491
          0.18059399724 -0.43021300435 -0.88447898626 0.22402000427 -0.5367180109 -0.81347900629
          0.25827199221 -0.61993902922 -0.7409260273 0.29293599725 -0.70316302776 -0.64788198471
          0.3261269927 -0.78395098448 -0.52826398611 0.34960699081 -0.84199601412 -0.41087400913
          0.36424401402 -0.87804502249 -0.31042599678 0.56036299467 -1.8472690582 -0.52306002378
          0.38244399428 -0.92061901093 -0.078726001084 0.28219899535 -0.70508497953 0.65055298805
          0.25777301192 -0.84976398945 1.7920529842 -0.35940000415 0.86860501766 0.34110999107
          -0.34860700369 0.84306001663 0.40953999758 -0.32969599962 0.79870200157 0.50336402655
          -0.29915699363 0.72624397278 0.61892998219 -0.26628801227 0.64615702629 0.71524202824
          -0.23785200715 0.57728797197 0.78113001585 -0.20118699968 0.49075201154 0.84775298834
          -0.15116399527 0.37103098631 0.91623401642 -0.19159199297 0.63159400225 1.8879569769
          -0 9.9999999748e-07 -1 0.1799069941 -0.26456299424 -0.94743901491
          0.26105499268 -0.38671499491 -0.88447797298 0.32442501187 -0.48270100355 -0.81347900629
          0.37425398827 -0.55764001608 -0.7409260273 0.42448699474 -0.63250297308 -0.64788198471
          0.47280201316 -0.70526301861 -0.52826297283 0.50715500116 -0.75761198997 -0.41087499261
          0.52854299545 -0.79011297226 -0.3104250133 0.90998202562 -1.7024519444 -0.52306002378
          0.5546990037 -0.82831799984 -0.078726999462 0.4143320024 -0.63648200035 0.65055298805
          0.41860100627 -0.78314697742 1.7920529842 -0.52195101976 0.78179997206 0.34110999107
          -0.50638198853 0.75885099173 0.40953999758 -0.47918099165 0.71903502941 0.50336301327
          -0.43509200215 0.65392702818 0.61892998219 -0.38723099232 0.58179098368 0.71524202824
          -0.34590598941 0.519792974 0.78113001585 -0.29306301475 0.44207298756 0.84775298834
          -0.22064399719 0.33441099524 0.91623401642 -0.31112900376 0.5820800066 1.8879569769
          -0 0 -1 0.22806300223 -0.2243809998 -0.94743901491
          0.33148300648 -0.32835501432 -0.88447797298 0.41236099601 -0.41013398767 -0.81347900629
          0.47585299611 -0.47391200066 -0.7409260273 0.53972601891 -0.53753602505 -0.64788198471
          0.60130697489 -0.59947299957 -0.52826297283 0.64521300793 -0.64411401749 -0.41087400913
          0.67252999544 -0.67181700468 -0.31042599678 1.224627018 -1.4922120571 -0.52305901051
          0.70563799143 -0.70418602228 -0.078727997839 0.53054201603 -0.54342001677 0.65055298805
          0.56334197521 -0.68643301725 1.7920529842 -0.66444301605 0.66495001316 0.34110999107
          -0.64469599724 0.64547997713 0.40953999758 -0.61024999619 0.61173599958 0.50336301327
          -0.55430698395 0.5564789772 0.61892998219 -0.49329200387 0.49506700039 0.71524202824
          -0.44066599011 0.44232299924 0.78113001585 -0.37367600203 0.37640500069 0.84775298834
          -0.28164499998 0.28494000435 0.91623401642 -0.41870900989 0.51019799709 1.8879569769
          -0 0 -1 0.26745599508 -0.17557699978 -0.94743901491
          0.38917198777 -0.25737598538 -0.88447898626 0.48445099592 -0.32180601358 -0.81347900629
          0.55916500092 -0.37197199464 -0.7409260273 0.63422298431 -0.42191201448 -0.64788198471
          0.70670497417 -0.47064501047 -0.52826297283 0.75847500563 -0.50586301088 -0.41087400913
          0.7906730175 -0.52770501375 -0.31042599678 1.4922130108 -1.2246259451 -0.52306002378
          0.82945901155 -0.55299198627 -0.078727997839 0.62636500597 -0.42947500944 0.65055197477
          0.68643200397 -0.56333899498 1.7920550108 -0.78140199184 0.52254700661 0.34110999107
          -0.75823497772 0.5073029995 0.40953999758 -0.71786797047 0.48092699051 0.50336301327
          -0.65221899748 0.43764701486 0.61893099546 -0.58039599657 0.38931798935 0.71524202824
          -0.51849198341 0.34785398841 0.78113001585 -0.43992900848 0.29627200961 0.84775298834
          -0.33182200789 0.22451899946 0.91623401642 -0.51019698381 0.41870799661 1.8879569769
          -9.9999999748e-07 -0 -1 0.29657000303 -0.12002599984 -0.94743901491
          0.43190601468 -0.17650699615 -0.88447797298 0.5379229784 -0.22111099958 -0.81347900629
          0.62098902464 -0.25573700666 -0.7409260273 0.70434802771 -0.29007399082 -0.64788198471
          0.78494298458 -0.32372999191 -0.52826398611 0.8425899744 -0.34817200899 -0.41087499261
          0.87843000889 -0.36331298947 -0.31042599678 1.7024519444 -0.90998101234 -0.52306002378
          0.9214040041 -0.38054800034 -0.078725002706 0.69811600447 -0.29902601242 0.65055197477
          0.78314501047 -0.41859900951 1.7920550108 -0.86833101511 0.36006298661 0.34110999107
          -0.84263598919 0.34963101149 0.40953999758 -0.7978990078 0.33163699508 0.50336301327
          -0.72506797314 0.30199599266 0.61892998219 -0.6451960206 0.26860800385 0.71524202824
          -0.57639199495 0.24001699686 0.78113001585 -0.48927500844 0.20475299656 0.84775298834
          -0.36924800277 0.15546900034 0.91623401642 -0.58207899332 0.31112900376 1.8879569769
          -9.9999999748e-07 0 -1 0.31428700686 -0.059861000627 -0.94743901491
          0.45804199576 -0.08885499835 -0.88447898626 0.57072401047 -0.11191900074 -0.81347900629
          0.65894901752 -0.12967500091 -0.7409260273 0.7474039793 -0.14709000289 -0.64788198471
          0.83301800489 -0.16437500715 -0.52826297283 0.89432501793 -0.17710100114 -0.41087499261
          0.93243002892 -0.18495799601 -0.31042599678 1.8472690582 -0.56036299467 -0.52306002378
          0.97794097662 -0.19347800314 -0.078725002706 0.74303799868 -0.15708400309 0.65055298805
          0.84976500273 -0.2577739954 1.7920529842 -0.92189097404 0.18374100327 0.34110999107
          -0.89465397596 0.17852400243 0.40953999758 -0.84726601839 0.16960300505 0.50336402655
          -0.77005302906 0.15474000573 0.61892998219 -0.68520200253 0.1375759989 0.71524202824
          -0.61214202642 0.12295699865 0.78113001585 -0.51981902122 0.10536599904 0.84775298834
          -0.39248299599 0.080444999039 0.91623401642 -0.63159400225 0.1915909946 1.8879569769
          -9.9999999748e-07 0 -1 0.31992700696 0.0026030000299 -0.94743901491
          0.46657600999 0.0022110000718 -0.88447898626 0.58159202337 0.0015739999944 -0.81347900629
          0.6715850234 0.0013719999697 -0.7409260273 0.76173901558 0.0015480000293 -0.64788198471
          0.84908002615 0.0012969999807 -0.52826297283 0.91169202328 0.00077599997167 -0.41087400913
          0.9505969882 0.000503999996 -0.31042599678 1.9210950136 -0.18921099603 -0.52306002378
          0.99689602852 0.0010270000203 -0.078727997839 0.75940698385 -0.009105999954 0.65055197477
          0.88372701406 -0.087039001286 1.7920520306 -0.94002300501 0.00035799999023 0.34110999107
          -0.91229200363 0.00055499997688 0.40953999758 -0.86407399178 0.0010509999702 0.50336402655
          -0.78544402122 0.0015369999455 0.61892998219 -0.69887501001 0.0012560000177 0.71524202824
          -0.62436699867 0.0011719999602 0.78113001585 -0.53038698435 0.0019300000276 0.84775298834
          -0.40063598752 0.0023300000466 0.91623401642 -0.65683597326 0.064692996442 1.8879569769
          -9.9999999748e-07 -0 -1 0.31327199936 0.064967997372 -0.94743901491
          0.45717900991 0.093194000423 -0.88447898626 0.57010900974 0.11500699818 -0.81348001957
          0.65841400623 0.13236500323 -0.7409260273 0.74680000544 0.15012699366 -0.64788198471
          0.83251100779 0.16692000628 -0.52826398611 0.89402198792 0.17862400413 -0.41087499261
          0.93223398924 0.18594700098 -0.31042599678 1.9210959673 0.18921099603 -0.52305901051
          0.97754001617 0.19549199939 -0.078726999462 0.74659198523 0.13922199607 0.65055197477
          0.88372498751 0.087039999664 1.7920529842 -0.92203098536 -0.18303799629 0.34110999107
          -0.89487099648 -0.17743599415 0.40953999758 -0.84767597914 -0.16754199564 0.50336402655
          -0.77065199614 -0.15172599256 0.61892998219 -0.68569099903 -0.13511200249 0.71524298191
          -0.61259901524 -0.12065900117 0.78113001585 -0.5205720067 -0.10158000141 0.84775298834
          -0.39339199662 -0.075874999166 0.91623401642 -0.65683597326 -0.064691998065 1.8879569769
          -9.9999999748e-07 -0 -1 0.29457700253 0.12483599782 -0.94743901491
          0.43021300435 0.18059399724 -0.88447898626 0.5367180109 0.22402000427 -0.81348001957
          0.61993902922 0.25827199221 -0.7409260273 0.70316302776 0.29293599725 -0.64788198471
          0.78395098448 0.3261269927 -0.52826297283 0.84199601412 0.34960699081 -0.41087499261
          0.87804502249 0.36424401402 -0.31042599678 1.8472679853 0.56036400795 -0.52306002378
          0.92061901093 0.38244399428 -0.078726001084 0.70508599281 0.28220000863 0.65055197477
          0.84976297617 0.25777301192 1.7920540571 -0.86860501766 -0.35940000415 0.34110999107
          -0.84306001663 -0.34860700369 0.40953999758 -0.79870200157 -0.32969599962 0.50336402655
          -0.72624397278 -0.29915699363 0.61892998219 -0.64615702629 -0.26628801227 0.71524202824
          -0.57728898525 -0.23785300553 0.78113001585 -0.49075201154 -0.20118699968 0.84775298834
          -0.37103098631 -0.15116399527 0.91623401642 -0.63159400225 -0.19159199297 1.8879569769
          -0 -1.999999995e-06 -1 0.26456299424 0.17990599573 -0.94743901491
          0.38671401143 0.2610540092 -0.88447898626 0.48270100355 0.32442399859 -0.81347900629
          0.55764001608 0.37425398827 -0.7409260273 0.63250201941 0.42448699474 -0.64788198471
          0.70526301861 0.47280201316 -0.52826297283 0.75761198997 0.50715500116 -0.41087499261
          0.79011297226 0.52854299545 -0.31042599678 1.7024519444 0.90998101234 -0.52305901051
          0.82831799984 0.5546990037 -0.078726999462 0.63648200035 0.4143320024 0.65055298805
          0.78314602375 0.41860100627 1.7920540571 -0.78179997206 -0.52195101976 0.34110999107
          -0.75885099173 -0.50638097525 0.40953999758 -0.71903502941 -0.47918000817 0.50336402655
          -0.65392702818 -0.43509200215 0.61892998219 -0.58179098368 -0.38723000884 0.71524202824
          -0.519792974 -0.34590598941 0.78113001585 -0.44207298756 -0.29306301475 0.84775298834
          -0.33441099524 -0.22064399719 0.91623401642 -0.5820800066 -0.31112799048 1.8879569769
          -9.9999999748e-07 -9.9999999748e-07 -1 0.22438199818 0.22806300223 -0.94743901491
          0.32835501432 0.3314819932 -0.88447898626 0.41013398767 0.41236099601 -0.81347900629
          0.47391301394 0.47585299611 -0.7409260273 0.53753602505 0.53972601891 -0.64788198471
          0.59947198629 0.60130697489 -0.52826398611 0.64411401749 0.64521199465 -0.41087400913
          0.67181801796 0.67252999544 -0.31042599678 1.4922120571 1.224627018 -0.52306002378
          0.70418602228 0.70563799143 -0.078726999462 0.54342001677 0.53054201603 0.65055298805
          0.68643301725 0.56334102154 1.7920540571 -0.66495001316 -0.66444301605 0.34110999107
          -0.64547997713 -0.64469599724 0.40953999758 -0.61173498631 -0.61024999619 0.50336402655
          -0.5564789772 -0.55430698395 0.61892998219 -0.49506700039 -0.49329200387 0.71524202824
          -0.44232299924 -0.44066599011 0.78113001585 -0.37640500069 -0.37367600203 0.84775298834
          -0.28494000435 -0.28164499998 0.91623401642 -0.51019799709 -0.41870799661 1.8879569769
          -9.9999999748e-07 -9.9999999748e-07 -1 0.17557699978 0.26745599508 -0.94743901491
          0.25737598538 0.38917198777 -0.88447898626 0.32180601358 0.48445001245 -0.81347900629
          0.37197199464 0.55916500092 -0.7409260273 0.42191201448 0.63422298431 -0.64788198471
          0.47064501047 0.7067040205 -0.52826398611 0.50586301088 0.75847500563 -0.41087499261
          0.52770501375 0.7906730175 -0.31042599678 1.2246259451 1.4922120571 -0.52306097746
          0.55299198627 0.82945901155 -0.078726001084 0.42947500944 0.62636399269 0.65055298805
          0.56334102154 0.68643301725 1.7920540571 -0.52254700661 -0.78140199184 0.34110999107
          -0.5073029995 -0.75823497772 0.40953999758 -0.48092699051 -0.71786797047 0.50336402655
          -0.43764701486 -0.65222001076 0.61892998219 -0.38931798935 -0.58039599657 0.71524202824
          -0.34785398841 -0.51849198341 0.78113001585 -0.29627200961 -0.43992900848 0.84775298834
          -0.22451899946 -0.33182200789 0.91623401642 -0.41870799661 -0.51019799709 1.8879569769
          -9.9999999748e-07 -9.9999999748e-07 -1 0.12002500147 0.29657000303 -0.94743901491
          0.17650699615 0.43190601468 -0.88447898626 0.22111000121 0.5379229784 -0.81347900629
          0.25573700666 0.62098902464 -0.7409260273 0.29007399082 0.70434802771 -0.64788198471
          0.32372999191 0.78494399786 -0.52826398611 0.34817200899 0.8425899744 -0.41087400913
          0.363312006 0.87843000889 -0.31042599678 0.90997898579 1.7024530172 -0.52306002378
          0.38054698706 0.9214040041 -0.078727997839 0.29902499914 0.69811499119 0.65055298805
          0.41859999299 0.78314602375 1.7920529842 -0.36006200314 -0.86833101511 0.34110999107
          -0.34963101149 -0.84263598919 0.40953999758 -0.33163699508 -0.79789799452 0.50336402655
          -0.30199599266 -0.72506797314 0.61892998219 -0.26860800385 -0.6451960206 0.71524298191
          -0.24001699686 -0.57639199495 0.78113001585 -0.20475299656 -0.48927500844 0.84775298834
          -0.15546900034 -0.36924800277 0.91623401642 -0.31112799048 -0.5820800066 1.8879569769
          -0 -9.9999999748e-07 -1 0.059861000627 0.31428700686 -0.94743901491
          0.08885499835 0.45804199576 -0.88447898626 0.11191800237 0.57072401047 -0.81347900629
          0.12967400253 0.65894800425 -0.7409260273 0.14708900452 0.74740499258 -0.64788198471
          0.16437500715 0.83301800489 -0.52826398611 0.17710100114 0.89432501793 -0.41087400913
          0.18495799601 0.93243002892 -0.31042599678 0.56036198139 1.8472690582 -0.52306002378
          0.19347800314 0.97794097662 -0.078727997839 0.15708400309 0.74303901196 0.65055197477
          0.25777199864 0.84976297617 1.7920540571 -0.18374100327 -0.92189097404 0.34110999107
          -0.17852300406 -0.89465397596 0.40953999758 -0.16960300505 -0.84726601839 0.50336402655
          -0.15473900735 -0.77005201578 0.61892998219 -0.13757500052 -0.68520200253 0.71524202824
          -0.12295699865 -0.61214101315 0.78113001585 -0.10536599904 -0.51981902122 0.84775298834
          -0.080444999039 -0.39248299599 0.91623401642 -0.1915909946 -0.63159400225 1.8879569769
          -0 -9.9999999748e-07 -1 -0.0026040000375 0.31992700696 -0.94743901491
          -0.0022120000795 0.46657499671 -0.88447898626 -0.001575000002 0.58159202337 -0.81347900629
          -0.0013719999697 0.6715850234 -0.7409260273 -0.0015490000369 0.76173901558 -0.64788198471
          -0.0012969999807 0.84907901287 -0.52826398611 -0.00077699997928 0.91169101 -0.41087499261
          -0.000503999996 0.9505969882 -0.31042599678 0.18921099603 1.9210950136 -0.52306002378
          -0.0010260000126 0.99689602852 -0.078726999462 0.009105999954 0.75940698385 0.65055298805
          0.087039001286 0.88372302055 1.7920540571 -0.00035799999023 -0.94002300501 0.34110999107
          -0.00055499997688 -0.91229200363 0.40953999758 -0.0010499999626 -0.86407399178 0.50336402655
          -0.0015360000543 -0.78544402122 0.61893099546 -0.0012550000101 -0.69887501001 0.71524202824
          -0.0011719999602 -0.62436699867 0.78113001585 -0.0019300000276 -0.53038698435 0.84775400162
          -0.0023300000466 -0.40063598752 0.91623401642 -0.064692996442 -0.65683597326 1.8879569769
          0 -9.9999999748e-07 -1 -0.064967997372 0.31327199936 -0.94743901491
          -0.093194000423 0.45717900991 -0.88447898626 -0.11500799656 0.57010900974 -0.81347900629
          -0.13236500323 0.65841299295 -0.7409260273 -0.15012699366 0.74680000544 -0.64788198471
          -0.166918993 0.83251202106 -0.52826297283 -0.17862400413 0.89402198792 -0.41087499261
          -0.18594700098 0.93223398924 -0.31042599678 -0.18921199441 1.9210950136 -0.52306097746
          -0.19549100101 0.97754001617 -0.078726999462 -0.13922199607 0.74659097195 0.65055298805
          -0.087039001286 0.88372302055 1.7920540571 0.18303799629 -0.92203098536 0.34110999107
          0.17743499577 -0.89487099648 0.40953999758 0.16754199564 -0.84767597914 0.50336402655
          0.15172599256 -0.77065199614 0.61892998219 0.13511200249 -0.68569201231 0.71524202824
          0.12065900117 -0.61259901524 0.78113001585 0.10158099979 -0.5205720067 0.84775298834
          0.075874999166 -0.39339199662 0.91623401642 0.064692996442 -0.65683597326 1.8879569769
          0 -9.9999999748e-07 -1 -0.12483599782 0.294577986 -0.94743901491
          -0.18059399724 0.43021300435 -0.88447898626 -0.22402000427 0.5367180109 -0.81347900629
          -0.25827199221 0.61993902922 -0.7409260273 -0.29293599725 0.70316201448 -0.64788198471
          -0.3261269927 0.78395098448 -0.52826398611 -0.34960699081 0.84199601412 -0.41087400913
          -0.36424300075 0.87804502249 -0.31042599678 -0.56036299467 1.8472679853 -0.52306097746
          -0.38244399428 0.92061901093 -0.078726999462 -0.28219899535 0.70508497953 0.65055298805
          -0.25777301192 0.8497620225 1.7920540571 0.35940000415 -0.86860501766 0.34110999107
          0.34860700369 -0.84306001663 0.40953999758 0.32969599962 -0.79870200157 0.50336402655
          0.29915699363 -0.72624397278 0.61892998219 0.26628801227 -0.64615702629 0.71524202824
          0.23785300553 -0.57728797197 0.78113001585 0.20118799806 -0.49075201154 0.84775298834
          0.15116399527 -0.37103098631 0.91623401642 0.19159199297 -0.63159400225 1.8879569769
          9.9999999748e-07 -9.9999999748e-07 -1 -0.1799069941 0.26456299424 -0.94743901491
          -0.2610540092 0.38671401143 -0.88447898626 -0.32442399859 0.48270100355 -0.81347900629
          -0.37425398827 0.55764001608 -0.7409260273 -0.42448699474 0.63250201941 -0.64788198471
          -0.47280201316 0.70526301861 -0.52826398611 -0.50715500116 0.75761198997 -0.41087499261
          -0.52854299545 0.79011297226 -0.31042599678 -0.90998101234 1.7024519444 -0.52306002378
          -0.5546990037 0.82831799984 -0.078726001084 -0.4143320024 0.63648301363 0.65055298805
          -0.41860100627 0.78314602375 1.7920529842 0.52195101976 -0.78179997206 0.34110999107
          0.50638097525 -0.75885099173 0.40953999758 0.47918000817 -0.71903502941 0.50336402655
          0.43509200215 -0.6539260149 0.61892998219 0.38723099232 -0.58179098368 0.71524202824
          0.34590598941 -0.519792974 0.78113001585 0.29306301475 -0.44207298756 0.84775298834
          0.22064399719 -0.33441099524 0.91623401642 0.31112900376 -0.5820800066 1.8879569769
          9.9999999748e-07 -9.9999999748e-07 -1 -0.22806300223 0.22438199818 -0.94743901491
          -0.33148300648 0.32835501432 -0.88447898626 -0.41236099601 0.41013398767 -0.81347900629
          -0.47585299611 0.47391301394 -0.7409260273 -0.53972601891 0.53753602505 -0.64788198471